<?xml version="1.0" encoding="UTF-8"?>

<!-- generated on 2025-11-06 22:38:47 by Eclipse SUMO GUI Version 1.23.1
<sumoConfiguration xmlns:xsi="http://www.w3.org/2001/XMLSchema-instance" xsi:noNamespaceSchemaLocation="http://sumo.dlr.de/xsd/sumoConfiguration.xsd">

    <input>
        <net-file value="G:\My Drive\ev range prediction project agni\Project EV range prediction\Simulation\config\map_with_tls.net.xml"/>
        <route-files value="G:\My Drive\ev range prediction project agni\Project EV range prediction\Simulation\config\ev_route_new1.rou.xml"/>
        <additional-files value="G:\My Drive\ev range prediction project agni\Project EV range prediction\Simulation\config\ev_types.add.xml"/>
    </input>

    <output>
        <emission-output value="G:\My Drive\ev range prediction project agni\Project EV range prediction\Simulation\config\../output/emissions.xml"/>
        <battery-output value="G:\My Drive\ev range prediction project agni\Project EV range prediction\Simulation\config\../output/battery.xml"/>
        <battery-output.precision value="6"/>
        <fcd-output value="G:\My Drive\ev range prediction project agni\Project EV range prediction\Simulation\config\../output/fcd.xml"/>
        <fcd-output.geo value="true"/>
        <summary-output value="G:\My Drive\ev range prediction project agni\Project EV range prediction\Simulation\config\../output/summary.xml"/>
        <tripinfo-output value="G:\My Drive\ev range prediction project agni\Project EV range prediction\Simulation\config\../output/tripinfo.xml"/>
    </output>

    <time>
        <begin value="0"/>
        <end value="3600"/>
        <step-length value="1.0"/>
    </time>

    <processing>
        <step-method.ballistic value="true"/>
        <lateral-resolution value="0.64"/>
    </processing>

    <report>
        <verbose value="true"/>
        <duration-log.statistics value="true"/>
        <no-step-log value="true"/>
    </report>

</sumoConfiguration>
-->

<tripinfos xmlns:xsi="http://www.w3.org/2001/XMLSchema-instance" xsi:noNamespaceSchemaLocation="http://sumo.dlr.de/xsd/tripinfo_file.xsd">
    <tripinfo id="1" depart="1.00" departLane="-207467975#1_0" departPos="4.10" departPosLat="0.00" departSpeed="0.00" departDelay="0.00" arrival="24.00" arrivalLane="-185665892#9_0" arrivalPos="64.98" arrivalPosLat="0.00" arrivalSpeed="12.53" duration="23.00" routeLength="214.77" waitingTime="0.00" waitingCount="0" stopTime="0.00" timeLoss="4.87" rerouteNo="0" devices="tripinfo_1 emissions_1 battery_1 fcd_1" vType="bmw_i3" speedFactor="0.94" vaporized="">
        <emissions CO_abs="0" CO2_abs="0" HC_abs="0" PMx_abs="0" NOx_abs="0" fuel_abs="0" electricity_abs="73.964644"/>
        <battery depleted="0" actualBatteryCapacity="34926.04" totalEnergyConsumed="92.18" totalEnergyRegenerated="18.21"/>
    </tripinfo>
    <tripinfo id="13" depart="13.00" departLane="-185405168#2_0" departPos="4.10" departPosLat="0.00" departSpeed="0.00" departDelay="0.00" arrival="40.00" arrivalLane="-185405168#4_1" arrivalPos="82.72" arrivalPosLat="0.00" arrivalSpeed="19.36" duration="27.00" routeLength="275.13" waitingTime="0.00" waitingCount="0" stopTime="0.00" timeLoss="14.01" rerouteNo="0" devices="tripinfo_13 emissions_13 battery_13 fcd_13" vType="bmw_i3" speedFactor="1.12" vaporized="">
        <emissions CO_abs="0" CO2_abs="0" HC_abs="0" PMx_abs="0" NOx_abs="0" fuel_abs="0" electricity_abs="161.920416"/>
        <battery depleted="0" actualBatteryCapacity="34838.08" totalEnergyConsumed="224.41" totalEnergyRegenerated="62.49"/>
    </tripinfo>
    <tripinfo id="22" depart="22.00" departLane="-185405168#10_0" departPos="4.10" departPosLat="0.00" departSpeed="0.00" departDelay="0.00" arrival="44.00" arrivalLane="-185665908#2_0" arrivalPos="30.71" arrivalPosLat="0.00" arrivalSpeed="13.20" duration="22.00" routeLength="146.40" waitingTime="1.00" waitingCount="1" stopTime="0.00" timeLoss="11.96" rerouteNo="0" devices="tripinfo_22 emissions_22 battery_22 fcd_22" vType="bmw_i3" speedFactor="0.97" vaporized="">
        <emissions CO_abs="0" CO2_abs="0" HC_abs="0" PMx_abs="0" NOx_abs="0" fuel_abs="0" electricity_abs="82.919110"/>
        <battery depleted="0" actualBatteryCapacity="34917.08" totalEnergyConsumed="115.31" totalEnergyRegenerated="32.39"/>
    </tripinfo>
    <tripinfo id="0" depart="0.00" departLane="185665876#3_0" departPos="4.10" departPosLat="0.00" departSpeed="0.00" departDelay="0.00" arrival="48.00" arrivalLane="-185405138#8_0" arrivalPos="8.70" arrivalPosLat="0.00" arrivalSpeed="14.54" duration="48.00" routeLength="526.34" waitingTime="0.00" waitingCount="0" stopTime="0.00" timeLoss="12.03" rerouteNo="0" devices="tripinfo_0 emissions_0 battery_0 fcd_0" vType="bmw_i3" speedFactor="1.06" vaporized="">
        <emissions CO_abs="0" CO2_abs="0" HC_abs="0" PMx_abs="0" NOx_abs="0" fuel_abs="0" electricity_abs="174.020747"/>
        <battery depleted="0" actualBatteryCapacity="34825.98" totalEnergyConsumed="267.03" totalEnergyRegenerated="93.01"/>
    </tripinfo>
    <tripinfo id="8" depart="8.00" departLane="-185665892#8_0" departPos="4.10" departPosLat="0.00" departSpeed="0.00" departDelay="0.00" arrival="53.00" arrivalLane="185405168#13_0" arrivalPos="33.59" arrivalPosLat="0.00" arrivalSpeed="6.10" duration="45.00" routeLength="370.59" waitingTime="0.00" waitingCount="0" stopTime="0.00" timeLoss="13.63" rerouteNo="0" devices="tripinfo_8 emissions_8 battery_8 fcd_8" vType="bmw_i3" speedFactor="0.94" vaporized="">
        <emissions CO_abs="0" CO2_abs="0" HC_abs="0" PMx_abs="0" NOx_abs="0" fuel_abs="0" electricity_abs="99.401545"/>
        <battery depleted="0" actualBatteryCapacity="34900.60" totalEnergyConsumed="165.81" totalEnergyRegenerated="66.41"/>
    </tripinfo>
    <tripinfo id="3" depart="3.00" departLane="28679310#1_0" departPos="0.20" departPosLat="0.00" departSpeed="0.00" departDelay="0.00" arrival="56.00" arrivalLane="-185405168#13_0" arrivalPos="33.59" arrivalPosLat="0.00" arrivalSpeed="12.94" duration="53.00" routeLength="382.94" waitingTime="5.00" waitingCount="3" stopTime="0.00" timeLoss="25.02" rerouteNo="0" devices="tripinfo_3 emissions_3 battery_3 fcd_3" vType="bmw_i3" speedFactor="1.08" vaporized="">
        <emissions CO_abs="0" CO2_abs="0" HC_abs="0" PMx_abs="0" NOx_abs="0" fuel_abs="0" electricity_abs="142.954067"/>
        <battery depleted="0" actualBatteryCapacity="34857.05" totalEnergyConsumed="217.73" totalEnergyRegenerated="74.77"/>
    </tripinfo>
    <tripinfo id="27" depart="27.00" departLane="185665881#5_0" departPos="4.10" departPosLat="0.00" departSpeed="0.00" departDelay="0.00" arrival="60.00" arrivalLane="185405168#9_1" arrivalPos="77.96" arrivalPosLat="0.00" arrivalSpeed="20.20" duration="33.00" routeLength="144.12" waitingTime="8.00" waitingCount="2" stopTime="0.00" timeLoss="21.83" rerouteNo="0" devices="tripinfo_27 emissions_27 battery_27 fcd_27" vType="bmw_i3" speedFactor="0.95" vaporized="">
        <emissions CO_abs="0" CO2_abs="0" HC_abs="0" PMx_abs="0" NOx_abs="0" fuel_abs="0" electricity_abs="128.463289"/>
        <battery depleted="0" actualBatteryCapacity="34871.54" totalEnergyConsumed="143.91" totalEnergyRegenerated="15.44"/>
    </tripinfo>
    <tripinfo id="39" depart="39.00" departLane="-207467967_0" departPos="4.10" departPosLat="0.00" departSpeed="0.00" departDelay="0.00" arrival="68.00" arrivalLane="-207467906_0" arrivalPos="84.29" arrivalPosLat="0.00" arrivalSpeed="12.14" duration="29.00" routeLength="261.94" waitingTime="0.00" waitingCount="0" stopTime="0.00" timeLoss="5.93" rerouteNo="0" devices="tripinfo_39 emissions_39 battery_39 fcd_39" vType="bmw_i3" speedFactor="0.90" vaporized="">
        <emissions CO_abs="0" CO2_abs="0" HC_abs="0" PMx_abs="0" NOx_abs="0" fuel_abs="0" electricity_abs="83.796062"/>
        <battery depleted="0" actualBatteryCapacity="34916.20" totalEnergyConsumed="114.49" totalEnergyRegenerated="30.70"/>
    </tripinfo>
    <tripinfo id="9" depart="9.00" departLane="207468066#1_0" departPos="4.10" departPosLat="0.00" departSpeed="0.00" departDelay="0.00" arrival="71.00" arrivalLane="-185405138#10_0" arrivalPos="65.38" arrivalPosLat="0.00" arrivalSpeed="11.51" duration="62.00" routeLength="516.66" waitingTime="2.00" waitingCount="1" stopTime="0.00" timeLoss="18.50" rerouteNo="0" devices="tripinfo_9 emissions_9 battery_9 fcd_9" vType="bmw_i3" speedFactor="0.86" vaporized="">
        <emissions CO_abs="0" CO2_abs="0" HC_abs="0" PMx_abs="0" NOx_abs="0" fuel_abs="0" electricity_abs="146.257720"/>
        <battery depleted="0" actualBatteryCapacity="34853.74" totalEnergyConsumed="225.04" totalEnergyRegenerated="78.78"/>
    </tripinfo>
    <tripinfo id="31" depart="31.00" departLane="185405165#4_0" departPos="4.10" departPosLat="0.00" departSpeed="0.00" departDelay="0.00" arrival="73.00" arrivalLane="185665890#4_0" arrivalPos="37.65" arrivalPosLat="0.00" arrivalSpeed="13.50" duration="42.00" routeLength="437.42" waitingTime="0.00" waitingCount="0" stopTime="0.00" timeLoss="12.42" rerouteNo="0" devices="tripinfo_31 emissions_31 battery_31 fcd_31" vType="bmw_i3" speedFactor="1.15" vaporized="">
        <emissions CO_abs="0" CO2_abs="0" HC_abs="0" PMx_abs="0" NOx_abs="0" fuel_abs="0" electricity_abs="136.222165"/>
        <battery depleted="0" actualBatteryCapacity="34863.78" totalEnergyConsumed="200.08" totalEnergyRegenerated="63.86"/>
    </tripinfo>
    <tripinfo id="7" depart="7.00" departLane="185665881#5_0" departPos="4.10" departPosLat="0.00" departSpeed="0.00" departDelay="0.00" arrival="75.00" arrivalLane="185405165#12_0" arrivalPos="217.59" arrivalPosLat="0.00" arrivalSpeed="11.91" duration="68.00" routeLength="657.11" waitingTime="0.00" waitingCount="0" stopTime="0.00" timeLoss="12.22" rerouteNo="0" devices="tripinfo_7 emissions_7 battery_7 fcd_7" vType="bmw_i3" speedFactor="0.89" vaporized="">
        <emissions CO_abs="0" CO2_abs="0" HC_abs="0" PMx_abs="0" NOx_abs="0" fuel_abs="0" electricity_abs="150.746266"/>
        <battery depleted="0" actualBatteryCapacity="34849.25" totalEnergyConsumed="213.51" totalEnergyRegenerated="62.76"/>
    </tripinfo>
    <tripinfo id="12" depart="12.00" departLane="E14_0" departPos="4.10" departPosLat="0.00" departSpeed="0.00" departDelay="0.00" arrival="75.00" arrivalLane="-207468091#2_0" arrivalPos="76.11" arrivalPosLat="0.00" arrivalSpeed="14.26" duration="63.00" routeLength="633.20" waitingTime="0.00" waitingCount="0" stopTime="0.00" timeLoss="14.39" rerouteNo="0" devices="tripinfo_12 emissions_12 battery_12 fcd_12" vType="bmw_i3" speedFactor="1.05" vaporized="">
        <emissions CO_abs="0" CO2_abs="0" HC_abs="0" PMx_abs="0" NOx_abs="0" fuel_abs="0" electricity_abs="196.355024"/>
        <battery depleted="0" actualBatteryCapacity="34803.64" totalEnergyConsumed="309.70" totalEnergyRegenerated="113.34"/>
    </tripinfo>
    <tripinfo id="18" depart="21.00" departLane="207468091#1_0" departPos="4.10" departPosLat="0.00" departSpeed="0.00" departDelay="3.00" arrival="76.00" arrivalLane="185665865#0_0" arrivalPos="27.53" arrivalPosLat="0.00" arrivalSpeed="12.80" duration="55.00" routeLength="382.84" waitingTime="12.00" waitingCount="2" stopTime="0.00" timeLoss="26.90" rerouteNo="0" devices="tripinfo_18 emissions_18 battery_18 fcd_18" vType="bmw_i3" speedFactor="0.94" vaporized="">
        <emissions CO_abs="0" CO2_abs="0" HC_abs="0" PMx_abs="0" NOx_abs="0" fuel_abs="0" electricity_abs="152.596208"/>
        <battery depleted="0" actualBatteryCapacity="34847.40" totalEnergyConsumed="241.56" totalEnergyRegenerated="88.96"/>
    </tripinfo>
    <tripinfo id="42" depart="42.00" departLane="-28679310#2_0" departPos="4.10" departPosLat="0.00" departSpeed="0.00" departDelay="0.00" arrival="78.00" arrivalLane="-185665892#8_0" arrivalPos="73.86" arrivalPosLat="0.00" arrivalSpeed="15.12" duration="36.00" routeLength="325.74" waitingTime="0.00" waitingCount="0" stopTime="0.00" timeLoss="14.23" rerouteNo="0" devices="tripinfo_42 emissions_42 battery_42 fcd_42" vType="bmw_i3" speedFactor="1.09" vaporized="">
        <emissions CO_abs="0" CO2_abs="0" HC_abs="0" PMx_abs="0" NOx_abs="0" fuel_abs="0" electricity_abs="134.177332"/>
        <battery depleted="0" actualBatteryCapacity="34865.82" totalEnergyConsumed="197.14" totalEnergyRegenerated="62.97"/>
    </tripinfo>
    <tripinfo id="20" depart="20.00" departLane="185665892#2_0" departPos="4.10" departPosLat="0.00" departSpeed="0.00" departDelay="0.00" arrival="79.00" arrivalLane="-185405165#13_0" arrivalPos="86.87" arrivalPosLat="0.00" arrivalSpeed="14.01" duration="59.00" routeLength="686.60" waitingTime="0.00" waitingCount="0" stopTime="0.00" timeLoss="12.78" rerouteNo="0" devices="tripinfo_20 emissions_20 battery_20 fcd_20" vType="bmw_i3" speedFactor="1.02" vaporized="">
        <emissions CO_abs="0" CO2_abs="0" HC_abs="0" PMx_abs="0" NOx_abs="0" fuel_abs="0" electricity_abs="191.574461"/>
        <battery depleted="0" actualBatteryCapacity="34808.43" totalEnergyConsumed="291.08" totalEnergyRegenerated="99.50"/>
    </tripinfo>
    <tripinfo id="16" depart="16.00" departLane="185405165#11_0" departPos="4.10" departPosLat="0.00" departSpeed="0.00" departDelay="0.00" arrival="80.00" arrivalLane="E19_0" arrivalPos="146.90" arrivalPosLat="0.00" arrivalSpeed="12.19" duration="64.00" routeLength="613.00" waitingTime="0.00" waitingCount="0" stopTime="0.00" timeLoss="11.11" rerouteNo="0" devices="tripinfo_16 emissions_16 battery_16 fcd_16" vType="bmw_i3" speedFactor="0.88" vaporized="">
        <emissions CO_abs="0" CO2_abs="0" HC_abs="0" PMx_abs="0" NOx_abs="0" fuel_abs="0" electricity_abs="136.278286"/>
        <battery depleted="0" actualBatteryCapacity="34863.72" totalEnergyConsumed="186.51" totalEnergyRegenerated="50.23"/>
    </tripinfo>
    <tripinfo id="54" depart="54.00" departLane="-E13_0" departPos="4.10" departPosLat="0.00" departSpeed="0.00" departDelay="0.00" arrival="83.00" arrivalLane="E12_0" arrivalPos="141.94" arrivalPosLat="0.00" arrivalSpeed="13.81" duration="29.00" routeLength="303.06" waitingTime="0.00" waitingCount="0" stopTime="0.00" timeLoss="6.23" rerouteNo="0" devices="tripinfo_54 emissions_54 battery_54 fcd_54" vType="bmw_i3" speedFactor="1.00" vaporized="">
        <emissions CO_abs="0" CO2_abs="0" HC_abs="0" PMx_abs="0" NOx_abs="0" fuel_abs="0" electricity_abs="101.998792"/>
        <battery depleted="0" actualBatteryCapacity="34898.00" totalEnergyConsumed="139.84" totalEnergyRegenerated="37.84"/>
    </tripinfo>
    <tripinfo id="66" depart="66.00" departLane="207468121#1_0" departPos="4.10" departPosLat="0.00" departSpeed="0.00" departDelay="0.00" arrival="83.00" arrivalLane="E10_0" arrivalPos="36.68" arrivalPosLat="0.00" arrivalSpeed="12.25" duration="17.00" routeLength="148.51" waitingTime="0.00" waitingCount="0" stopTime="0.00" timeLoss="3.64" rerouteNo="0" devices="tripinfo_66 emissions_66 battery_66 fcd_66" vType="bmw_i3" speedFactor="0.91" vaporized="">
        <emissions CO_abs="0" CO2_abs="0" HC_abs="0" PMx_abs="0" NOx_abs="0" fuel_abs="0" electricity_abs="62.290880"/>
        <battery depleted="0" actualBatteryCapacity="34937.71" totalEnergyConsumed="77.51" totalEnergyRegenerated="15.22"/>
    </tripinfo>
    <tripinfo id="41" depart="41.00" departLane="185405168#13_0" departPos="4.10" departPosLat="0.00" departSpeed="0.00" departDelay="0.00" arrival="85.00" arrivalLane="28679310#1_0" arrivalPos="0.20" arrivalPosLat="0.00" arrivalSpeed="5.02" duration="44.00" routeLength="354.07" waitingTime="0.00" waitingCount="0" stopTime="0.00" timeLoss="14.94" rerouteNo="0" devices="tripinfo_41 emissions_41 battery_41 fcd_41" vType="bmw_i3" speedFactor="0.96" vaporized="">
        <emissions CO_abs="0" CO2_abs="0" HC_abs="0" PMx_abs="0" NOx_abs="0" fuel_abs="0" electricity_abs="85.663970"/>
        <battery depleted="0" actualBatteryCapacity="34914.34" totalEnergyConsumed="136.75" totalEnergyRegenerated="51.08"/>
    </tripinfo>
    <tripinfo id="25" depart="25.00" departLane="-207468110#0_0" departPos="4.10" departPosLat="0.00" departSpeed="0.00" departDelay="0.00" arrival="87.00" arrivalLane="-185665892#3_0" arrivalPos="33.80" arrivalPosLat="0.00" arrivalSpeed="12.04" duration="62.00" routeLength="541.24" waitingTime="0.00" waitingCount="0" stopTime="0.00" timeLoss="15.25" rerouteNo="0" devices="tripinfo_25 emissions_25 battery_25 fcd_25" vType="bmw_i3" speedFactor="0.87" vaporized="">
        <emissions CO_abs="0" CO2_abs="0" HC_abs="0" PMx_abs="0" NOx_abs="0" fuel_abs="0" electricity_abs="165.094417"/>
        <battery depleted="0" actualBatteryCapacity="34834.91" totalEnergyConsumed="264.05" totalEnergyRegenerated="98.95"/>
    </tripinfo>
    <tripinfo id="46" depart="46.00" departLane="207468053#0_0" departPos="4.10" departPosLat="0.00" departSpeed="0.00" departDelay="0.00" arrival="87.00" arrivalLane="-797536433_0" arrivalPos="123.88" arrivalPosLat="0.00" arrivalSpeed="13.58" duration="41.00" routeLength="389.33" waitingTime="0.00" waitingCount="0" stopTime="0.00" timeLoss="9.52" rerouteNo="0" devices="tripinfo_46 emissions_46 battery_46 fcd_46" vType="bmw_i3" speedFactor="1.00" vaporized="">
        <emissions CO_abs="0" CO2_abs="0" HC_abs="0" PMx_abs="0" NOx_abs="0" fuel_abs="0" electricity_abs="128.008215"/>
        <battery depleted="0" actualBatteryCapacity="34871.99" totalEnergyConsumed="184.92" totalEnergyRegenerated="56.91"/>
    </tripinfo>
    <tripinfo id="63" depart="63.00" departLane="-185405138#7_0" departPos="4.10" departPosLat="0.00" departSpeed="0.00" departDelay="0.00" arrival="91.00" arrivalLane="798240974_0" arrivalPos="32.48" arrivalPosLat="0.00" arrivalSpeed="13.39" duration="28.00" routeLength="298.84" waitingTime="0.00" waitingCount="0" stopTime="0.00" timeLoss="4.32" rerouteNo="0" devices="tripinfo_63 emissions_63 battery_63 fcd_63" vType="bmw_i3" speedFactor="0.99" vaporized="">
        <emissions CO_abs="0" CO2_abs="0" HC_abs="0" PMx_abs="0" NOx_abs="0" fuel_abs="0" electricity_abs="84.701644"/>
        <battery depleted="0" actualBatteryCapacity="34915.30" totalEnergyConsumed="100.39" totalEnergyRegenerated="15.69"/>
    </tripinfo>
    <tripinfo id="43" depart="43.00" departLane="E9_0" departPos="4.10" departPosLat="0.00" departSpeed="0.00" departDelay="0.00" arrival="92.00" arrivalLane="185405138#10_0" arrivalPos="65.38" arrivalPosLat="0.00" arrivalSpeed="14.41" duration="49.00" routeLength="491.57" waitingTime="0.00" waitingCount="0" stopTime="0.00" timeLoss="11.99" rerouteNo="0" devices="tripinfo_43 emissions_43 battery_43 fcd_43" vType="bmw_i3" speedFactor="1.04" vaporized="">
        <emissions CO_abs="0" CO2_abs="0" HC_abs="0" PMx_abs="0" NOx_abs="0" fuel_abs="0" electricity_abs="155.176003"/>
        <battery depleted="0" actualBatteryCapacity="34844.82" totalEnergyConsumed="230.82" totalEnergyRegenerated="75.65"/>
    </tripinfo>
    <tripinfo id="34" depart="34.00" departLane="-207468077_0" departPos="4.10" departPosLat="0.00" departSpeed="0.00" departDelay="0.00" arrival="94.00" arrivalLane="-207467970_0" arrivalPos="25.25" arrivalPosLat="0.00" arrivalSpeed="13.13" duration="60.00" routeLength="677.88" waitingTime="0.00" waitingCount="0" stopTime="0.00" timeLoss="14.29" rerouteNo="0" devices="tripinfo_34 emissions_34 battery_34 fcd_34" vType="bmw_i3" speedFactor="0.99" vaporized="">
        <emissions CO_abs="0" CO2_abs="0" HC_abs="0" PMx_abs="0" NOx_abs="0" fuel_abs="0" electricity_abs="191.743891"/>
        <battery depleted="0" actualBatteryCapacity="34808.26" totalEnergyConsumed="298.08" totalEnergyRegenerated="106.33"/>
    </tripinfo>
    <tripinfo id="32" depart="32.00" departLane="207468092#1_0" departPos="4.10" departPosLat="0.00" departSpeed="0.00" departDelay="0.00" arrival="96.00" arrivalLane="207467975#1_0" arrivalPos="5.03" arrivalPosLat="0.00" arrivalSpeed="13.83" duration="64.00" routeLength="655.62" waitingTime="0.00" waitingCount="0" stopTime="0.00" timeLoss="12.61" rerouteNo="0" devices="tripinfo_32 emissions_32 battery_32 fcd_32" vType="bmw_i3" speedFactor="1.01" vaporized="">
        <emissions CO_abs="0" CO2_abs="0" HC_abs="0" PMx_abs="0" NOx_abs="0" fuel_abs="0" electricity_abs="186.033077"/>
        <battery depleted="0" actualBatteryCapacity="34813.97" totalEnergyConsumed="285.76" totalEnergyRegenerated="99.72"/>
    </tripinfo>
    <tripinfo id="48" depart="48.00" departLane="E8_0" departPos="4.10" departPosLat="0.00" departSpeed="0.00" departDelay="0.00" arrival="97.00" arrivalLane="185405138#9_0" arrivalPos="21.37" arrivalPosLat="0.00" arrivalSpeed="11.53" duration="49.00" routeLength="515.86" waitingTime="0.00" waitingCount="0" stopTime="0.00" timeLoss="10.60" rerouteNo="0" devices="tripinfo_48 emissions_48 battery_48 fcd_48" vType="bmw_i3" speedFactor="0.88" vaporized="">
        <emissions CO_abs="0" CO2_abs="0" HC_abs="0" PMx_abs="0" NOx_abs="0" fuel_abs="0" electricity_abs="140.856923"/>
        <battery depleted="0" actualBatteryCapacity="34859.14" totalEnergyConsumed="214.17" totalEnergyRegenerated="73.32"/>
    </tripinfo>
    <tripinfo id="36" depart="36.00" departLane="207468121#1_0" departPos="4.10" departPosLat="0.00" departSpeed="0.00" departDelay="0.00" arrival="103.00" arrivalLane="-207468066#1_0" arrivalPos="131.43" arrivalPosLat="0.00" arrivalSpeed="13.49" duration="67.00" routeLength="694.91" waitingTime="0.00" waitingCount="0" stopTime="0.00" timeLoss="14.78" rerouteNo="0" devices="tripinfo_36 emissions_36 battery_36 fcd_36" vType="bmw_i3" speedFactor="0.97" vaporized="">
        <emissions CO_abs="0" CO2_abs="0" HC_abs="0" PMx_abs="0" NOx_abs="0" fuel_abs="0" electricity_abs="197.074970"/>
        <battery depleted="0" actualBatteryCapacity="34802.93" totalEnergyConsumed="301.96" totalEnergyRegenerated="104.89"/>
    </tripinfo>
    <tripinfo id="24" depart="24.00" departLane="185665876#2_0" departPos="4.10" departPosLat="0.00" departSpeed="0.00" departDelay="0.00" arrival="105.00" arrivalLane="-207468100#1_0" arrivalPos="37.09" arrivalPosLat="0.00" arrivalSpeed="11.40" duration="81.00" routeLength="386.32" waitingTime="34.00" waitingCount="2" stopTime="0.00" timeLoss="45.82" rerouteNo="0" devices="tripinfo_24 emissions_24 battery_24 fcd_24" vType="bmw_i3" speedFactor="0.83" vaporized="">
        <emissions CO_abs="0" CO2_abs="0" HC_abs="0" PMx_abs="0" NOx_abs="0" fuel_abs="0" electricity_abs="121.777085"/>
        <battery depleted="0" actualBatteryCapacity="34878.22" totalEnergyConsumed="166.87" totalEnergyRegenerated="45.10"/>
    </tripinfo>
    <tripinfo id="21" depart="21.00" departLane="-185665908#1_0" departPos="4.10" departPosLat="0.00" departSpeed="0.00" departDelay="0.00" arrival="108.00" arrivalLane="-207468033_0" arrivalPos="187.82" arrivalPosLat="0.00" arrivalSpeed="13.97" duration="87.00" routeLength="1012.09" waitingTime="0.00" waitingCount="0" stopTime="0.00" timeLoss="12.86" rerouteNo="0" devices="tripinfo_21 emissions_21 battery_21 fcd_21" vType="bmw_i3" speedFactor="1.01" vaporized="">
        <emissions CO_abs="0" CO2_abs="0" HC_abs="0" PMx_abs="0" NOx_abs="0" fuel_abs="0" electricity_abs="209.012753"/>
        <battery depleted="0" actualBatteryCapacity="34790.99" totalEnergyConsumed="288.75" totalEnergyRegenerated="79.74"/>
    </tripinfo>
    <tripinfo id="33" depart="33.00" departLane="-185665908#1_0" departPos="4.10" departPosLat="0.00" departSpeed="0.00" departDelay="0.00" arrival="109.00" arrivalLane="-185405165#0_0" arrivalPos="162.10" arrivalPosLat="0.00" arrivalSpeed="15.93" duration="76.00" routeLength="1031.66" waitingTime="0.00" waitingCount="0" stopTime="0.00" timeLoss="11.02" rerouteNo="0" devices="tripinfo_33 emissions_33 battery_33 fcd_33" vType="bmw_i3" speedFactor="1.17" vaporized="">
        <emissions CO_abs="0" CO2_abs="0" HC_abs="0" PMx_abs="0" NOx_abs="0" fuel_abs="0" electricity_abs="229.011712"/>
        <battery depleted="0" actualBatteryCapacity="34770.99" totalEnergyConsumed="313.13" totalEnergyRegenerated="84.12"/>
    </tripinfo>
    <tripinfo id="40" depart="40.00" departLane="185405165#8_0" departPos="4.10" departPosLat="0.00" departSpeed="0.00" departDelay="0.00" arrival="110.00" arrivalLane="-207467964_0" arrivalPos="60.54" arrivalPosLat="0.00" arrivalSpeed="14.15" duration="70.00" routeLength="783.65" waitingTime="0.00" waitingCount="0" stopTime="0.00" timeLoss="19.11" rerouteNo="0" devices="tripinfo_40 emissions_40 battery_40 fcd_40" vType="bmw_i3" speedFactor="1.03" vaporized="">
        <emissions CO_abs="0" CO2_abs="0" HC_abs="0" PMx_abs="0" NOx_abs="0" fuel_abs="0" electricity_abs="246.453537"/>
        <battery depleted="0" actualBatteryCapacity="34753.55" totalEnergyConsumed="398.86" totalEnergyRegenerated="152.40"/>
    </tripinfo>
    <tripinfo id="65" depart="65.00" departLane="-207468060#1_0" departPos="4.10" departPosLat="0.00" departSpeed="0.00" departDelay="0.00" arrival="110.00" arrivalLane="-185405165#4_0" arrivalPos="82.11" arrivalPosLat="0.00" arrivalSpeed="11.99" duration="45.00" routeLength="450.42" waitingTime="0.00" waitingCount="0" stopTime="0.00" timeLoss="6.41" rerouteNo="0" devices="tripinfo_65 emissions_65 battery_65 fcd_65" vType="bmw_i3" speedFactor="0.88" vaporized="">
        <emissions CO_abs="0" CO2_abs="0" HC_abs="0" PMx_abs="0" NOx_abs="0" fuel_abs="0" electricity_abs="102.745325"/>
        <battery depleted="0" actualBatteryCapacity="34897.25" totalEnergyConsumed="133.43" totalEnergyRegenerated="30.68"/>
    </tripinfo>
    <tripinfo id="47" depart="47.00" departLane="-185405165#5_0" departPos="4.10" departPosLat="0.00" departSpeed="0.00" departDelay="0.00" arrival="111.00" arrivalLane="-207468121#1_0" arrivalPos="111.78" arrivalPosLat="0.00" arrivalSpeed="12.18" duration="64.00" routeLength="677.60" waitingTime="0.00" waitingCount="0" stopTime="0.00" timeLoss="7.64" rerouteNo="0" devices="tripinfo_47 emissions_47 battery_47 fcd_47" vType="bmw_i3" speedFactor="0.90" vaporized="">
        <emissions CO_abs="0" CO2_abs="0" HC_abs="0" PMx_abs="0" NOx_abs="0" fuel_abs="0" electricity_abs="127.127024"/>
        <battery depleted="0" actualBatteryCapacity="34872.87" totalEnergyConsumed="154.15" totalEnergyRegenerated="27.03"/>
    </tripinfo>
    <tripinfo id="88" depart="88.00" departLane="-185405168#4_0" departPos="4.10" departPosLat="0.00" departSpeed="0.00" departDelay="0.00" arrival="113.00" arrivalLane="-798240976_0" arrivalPos="182.64" arrivalPosLat="0.00" arrivalSpeed="13.67" duration="25.00" routeLength="270.43" waitingTime="0.00" waitingCount="0" stopTime="0.00" timeLoss="6.10" rerouteNo="0" devices="tripinfo_88 emissions_88 battery_88 fcd_88" vType="bmw_i3" speedFactor="1.01" vaporized="">
        <emissions CO_abs="0" CO2_abs="0" HC_abs="0" PMx_abs="0" NOx_abs="0" fuel_abs="0" electricity_abs="87.157038"/>
        <battery depleted="0" actualBatteryCapacity="34912.84" totalEnergyConsumed="109.33" totalEnergyRegenerated="22.18"/>
    </tripinfo>
    <tripinfo id="62" depart="62.00" departLane="-185405138#0_0" departPos="4.10" departPosLat="0.00" departSpeed="0.00" departDelay="0.00" arrival="114.00" arrivalLane="-207468085#1_0" arrivalPos="124.59" arrivalPosLat="0.00" arrivalSpeed="13.84" duration="52.00" routeLength="607.40" waitingTime="0.00" waitingCount="0" stopTime="0.00" timeLoss="6.66" rerouteNo="0" devices="tripinfo_62 emissions_62 battery_62 fcd_62" vType="bmw_i3" speedFactor="1.02" vaporized="">
        <emissions CO_abs="0" CO2_abs="0" HC_abs="0" PMx_abs="0" NOx_abs="0" fuel_abs="0" electricity_abs="134.689504"/>
        <battery depleted="0" actualBatteryCapacity="34865.31" totalEnergyConsumed="170.18" totalEnergyRegenerated="35.49"/>
    </tripinfo>
    <tripinfo id="77" depart="77.00" departLane="-185665865#1_0" departPos="4.10" departPosLat="0.00" departSpeed="0.00" departDelay="0.00" arrival="115.00" arrivalLane="-185665892#9_0" arrivalPos="64.98" arrivalPosLat="0.00" arrivalSpeed="13.20" duration="38.00" routeLength="360.15" waitingTime="0.00" waitingCount="0" stopTime="0.00" timeLoss="8.86" rerouteNo="0" devices="tripinfo_77 emissions_77 battery_77 fcd_77" vType="bmw_i3" speedFactor="0.98" vaporized="">
        <emissions CO_abs="0" CO2_abs="0" HC_abs="0" PMx_abs="0" NOx_abs="0" fuel_abs="0" electricity_abs="110.720925"/>
        <battery depleted="0" actualBatteryCapacity="34889.28" totalEnergyConsumed="153.03" totalEnergyRegenerated="42.31"/>
    </tripinfo>
    <tripinfo id="93" depart="93.00" departLane="207468100#1_0" departPos="4.10" departPosLat="0.00" departSpeed="0.00" departDelay="0.00" arrival="119.00" arrivalLane="-207467929_0" arrivalPos="77.92" arrivalPosLat="0.00" arrivalSpeed="12.39" duration="26.00" routeLength="156.73" waitingTime="7.00" waitingCount="1" stopTime="0.00" timeLoss="12.94" rerouteNo="0" devices="tripinfo_93 emissions_93 battery_93 fcd_93" vType="bmw_i3" speedFactor="0.92" vaporized="">
        <emissions CO_abs="0" CO2_abs="0" HC_abs="0" PMx_abs="0" NOx_abs="0" fuel_abs="0" electricity_abs="67.153886"/>
        <battery depleted="0" actualBatteryCapacity="34932.85" totalEnergyConsumed="83.94" totalEnergyRegenerated="16.79"/>
    </tripinfo>
    <tripinfo id="58" depart="58.00" departLane="-207468053#1_0" departPos="4.10" departPosLat="0.00" departSpeed="0.00" departDelay="0.00" arrival="120.00" arrivalLane="185665876#1_0" arrivalPos="96.21" arrivalPosLat="0.00" arrivalSpeed="14.19" duration="62.00" routeLength="722.54" waitingTime="0.00" waitingCount="0" stopTime="0.00" timeLoss="8.27" rerouteNo="0" devices="tripinfo_58 emissions_58 battery_58 fcd_58" vType="bmw_i3" speedFactor="1.02" vaporized="">
        <emissions CO_abs="0" CO2_abs="0" HC_abs="0" PMx_abs="0" NOx_abs="0" fuel_abs="0" electricity_abs="151.475228"/>
        <battery depleted="0" actualBatteryCapacity="34848.52" totalEnergyConsumed="190.69" totalEnergyRegenerated="39.22"/>
    </tripinfo>